# vtk DataFile Version 3.0
vtk output
ASCII
DATASET POLYDATA
POINTS 1002 float
-106.143 -85.0582 82.4059 -110.866 -99.2167 90.4471 -109.397 -88.0641 77.4514 
-114.313 -103.127 87.7607 -110.574 -86.825 85.7714 -113.727 -83.3854 78.651 
-102.513 -88.1208 76.4974 -108.741 -93.9478 80.1662 -114.499 -94.7544 88.4555 
-109.87 -79.2448 72.1015 -106.669 -97.3418 84.5046 -106.502 -86.2425 67.9406 
-106.632 -86.4649 83.8662 -107.329 -88.1104 85.325 -108.096 -89.78 86.6807 
-108.82 -91.4514 87.9252 -109.527 -93.3 89.0234 -110.204 -95.2654 89.8299 
-110.686 -96.9601 90.2712 -110.891 -98.1302 90.4462 -110.916 -98.8336 90.4827 
-106.743 -86.007 83.7371 -107.453 -87.1579 85.0023 -108.215 -88.2246 85.9665 
-108.89 -88.8356 86.5067 -109.308 -88.7885 86.7272 -109.491 -88.332 86.7998 
-109.665 -87.9276 86.7369 -109.963 -87.6773 86.4791 -110.299 -87.3467 86.1011 
-105.829 -85.0843 81.9079 -105.486 -85.1518 81.3367 -105.006 -85.0396 80.7837 
-104.344 -84.8346 80.1777 -103.691 -85.0384 79.4092 -103.241 -85.6909 78.6045 
-102.924 -86.2327 77.9552 -102.646 -86.5769 77.4233 -102.486 -87.1683 76.9165 
-106.155 -84.3482 81.6805 -106.246 -83.6922 80.7236 -106.359 -82.9825 79.5743 
-106.556 -82.1754 78.3138 -107.037 -81.4878 77.0099 -107.761 -81.0698 75.7315 
-108.374 -80.6884 74.5697 -108.756 -80.131 73.5776 -109.184 -79.5615 72.7535 
-105.648 -83.9489 80.6805 -105.286 -83.2306 78.9017 -105.04 -82.9258 77.0163 
-104.925 -82.8783 74.9419 -105.015 -82.9927 72.9376 -105.323 -83.3555 71.4557 
-105.697 -83.9963 70.469 -105.988 -84.7615 69.5612 -106.217 -85.5169 68.6291 
-111.763 -102.671 90.6502 -112.66 -107.207 90.2481 -113.544 -110.79 89.6909 
-114.187 -110.562 89.7127 -114.22 -105.842 90.3553 -113.567 -99.3335 90.699 
-112.589 -94.1141 90.0078 -111.687 -90.8488 88.5433 -111.014 -88.6409 87.0017 
-109.862 -96.7229 89.6208 -108.57 -94.7025 88.2436 -107.201 -92.6442 86.7225 
-106.039 -90.6565 85.2375 -105.052 -89.3491 83.6869 -104.059 -88.7152 82.1492 
-103.192 -88.2564 80.7778 -102.704 -87.9138 79.4289 -102.552 -87.8904 77.9532 
-111.336 -101.428 90.5043 -111.863 -104.428 90.1136 -112.603 -108.136 89.4502 
-113.59 -111.267 89.0287 -114.586 -111.775 89.2074 -115.204 -108.944 89.7005 
-115.261 -104.339 89.9328 -114.949 -100.036 89.6912 -114.623 -96.8967 89.1343 
-110.19 -97.8338 90.0059 -109.347 -96.7237 89.4476 -108.416 -95.9997 88.8475 
-107.634 -95.8535 88.1674 -107.176 -96.1588 87.3911 -106.936 -96.4303 86.6628 
-106.727 -96.4978 86.0892 -106.559 -96.6341 85.5846 -106.536 -96.9686 85.0473 
-109.854 -89.2428 78.7456 -110.602 -90.6952 80.0772 -111.403 -92.2876 81.5907 
-112.032 -93.9272 83.2146 -112.538 -95.6415 84.5955 -113.072 -97.3971 85.5676 
-113.551 -99.018 86.3465 -113.847 -100.44 87.0612 -114.05 -101.784 87.5665 
-109.61 -87.7748 77.188 -109.941 -87.2961 76.9295 -110.438 -86.6716 76.7911 
-111.018 -86.1117 76.72 -111.525 -85.6402 76.7024 -111.973 -85.0595 76.8916 
-112.507 -84.4217 77.2765 -113.082 -83.9689 77.6582 -113.507 -83.6828 78.0491 
-109.503 -89.0723 78.4989 -109.794 -90.4049 79.5552 -110.171 -91.9278 80.5688 
-110.5 -93.2829 81.4794 -110.639 -94.1621 82.1393 -110.521 -94.5611 82.3823 
-110.204 -94.654 82.1819 -109.771 -94.5582 81.6487 -109.27 -94.3105 80.9305 
-109.435 -87.0163 75.9071 -109.897 -86.2012 74.2129 -110.607 -85.488 72.5982 
-111.293 -84.6173 71.3793 -111.822 -83.4086 70.688 -112.128 -81.9689 70.3626 
-112.048 -80.6574 70.2417 -111.502 -79.7718 70.4224 -110.677 -79.3421 71.0627 
-109.15 -87.5587 76.5763 -109.015 -87.1251 75.2416 -109.025 -86.922 73.5581 
-109.141 -86.9397 71.922 -109.211 -86.9861 70.5943 -109.027 -86.9502 69.4225 
-108.504 -86.874 68.31 -107.778 -86.7552 67.5669 -107.072 -86.5391 67.4812 
-114.034 -98.7083 86.7935 -113.73 -95.5369 85.246 -113.31 -93.2582 83.7188 
-112.799 -90.8367 82.6755 -112.585 -88.5806 81.891 -112.927 -87.4724 80.9999 
-113.442 -86.9813 80.136 -113.675 -85.9706 79.5223 -113.68 -84.5267 79.0723 
-114.341 -107.213 88.036 -114.335 -111.002 87.7229 -114.344 -113.352 87.1573 
-114.206 -113.112 86.9355 -113.608 -109.907 87.1316 -112.554 -104.974 87.0028 
-111.426 -100.454 85.8745 -110.464 -97.443 83.9407 -109.594 -95.516 81.8889 
-114.457 -101.269 87.3453 -114.527 -98.9989 86.8944 -114.517 -96.9091 86.6569 
-114.519 -95.7068 86.6046 -114.568 -95.2632 86.588 -114.59 -94.8622 86.7159 
-114.564 -94.3741 87.1357 -114.544 -94.2046 87.6871 -114.538 -94.4288 88.1377 
-114.69 -107.286 87.9305 -114.877 -111.205 87.6773 -114.323 -112.606 87.3219 
-112.756 -110.017 87.2416 -110.766 -104.922 87.3258 -109.279 -100.642 87.06 
-108.481 -98.798 86.2864 -107.907 -98.4173 85.4028 -107.275 -98.0841 84.7955 
-110.589 -85.4045 85.0393 -110.821 -84.2261 84.4513 -111.317 -83.5048 83.9081 
-111.97 -82.8948 83.3408 -112.614 -82.1069 82.7401 -113.183 -81.5681 81.9892 
-113.629 -81.6701 80.9715 -113.857 -82.1543 79.8745 -113.857 -82.7225 79.0509 
-110.999 -87.2698 86.2088 -111.429 -87.7562 86.723 -111.978 -88.4054 87.1993 
-112.678 -89.2255 87.5231 -113.348 -90.0332 87.7288 -113.79 -90.7445 87.8988 
-114.039 -91.5238 88.0198 -114.223 -92.4775 88.1 -114.377 -93.5505 88.2326 
-110.109 -85.4813 84.8792 -109.723 -84.1174 83.9386 -109.501 -82.8489 82.8171 
-109.423 -81.7894 81.4756 -109.327 -80.916 80.1055 -109.133 -80.1634 78.8171 
-109.013 -79.5983 77.3662 -109.146 -79.2956 75.5653 -109.486 -79.2018 73.6718 
-113.875 -83.6512 79.744 -114.189 -84.2306 80.8941 -114.555 -85.1808 81.9615 
-114.814 -86.091 83.0406 -115.046 -86.7142 84.2675 -115.35 -87.6006 85.4184 
-115.45 -89.1459 86.2051 -115.115 -90.8922 86.8086 -114.646 -92.5932 87.5685 
-113.873 -82.8764 77.7187 -114.164 -82.3992 76.9046 -114.213 -81.4671 76.5185 
-113.728 -80.2313 76.3812 -112.994 -79.577 75.9059 -112.452 -79.7091 74.9107 
-112.008 -79.8147 73.8194 -111.358 -79.5035 72.9938 -110.56 -79.1986 72.4479 
-102.566 -89.0458 75.4857 -102.614 -89.9601 74.683 -102.791 -90.5713 74.2161 
-103.4 -90.9531 74.0847 -104.452 -91.2743 74.3224 -105.508 -91.3849 75.0286 
-106.297 -91.3551 76.1365 -107.019 -91.7349 77.4267 -107.863 -92.7307 78.7752 
-102.69 -88.9357 77.1368 -102.869 -89.4682 78.011 -102.95 -89.8367 78.8792 
-103.112 -90.6579 79.4841 -103.667 -92.0162 80.0055 -104.495 -93.0764 80.8669 
-105.153 -93.6226 82.0099 -105.572 -94.4878 83.0073 -106.036 -95.9519 83.7604 
-102.429 -87.6793 75.3906 -102.488 -87.2209 74.4101 -102.778 -87.1035 73.4162 
-103.172 -87.3444 72.2475 -103.505 -87.3711 71.1219 -103.899 -86.9078 70.3832 
-104.537 -86.4428 69.9049 -105.304 -86.334 69.3171 -105.977 -86.3582 68.5833 
-108.716 -94.429 80.3377 -108.63 -94.7402 80.4729 -108.404 -94.8869 80.5718 
-107.986 -95.0104 80.645 -107.426 -95.1863 80.7724 -106.89 -95.4042 81.0876 
-106.541 -95.7461 81.6706 -106.422 -96.2805 82.4974 -106.483 -96.8774 83.4788 
-108.216 -92.6009 79.0689 -107.722 -91.2086 77.7658 -107.396 -90.1612 76.0066 
-107.323 -89.7784 73.8498 -107.389 -89.8071 71.8547 -107.359 -89.6095 70.4494 
-107.14 -88.9322 69.4467 -106.842 -88.0177 68.5936 -106.609 -87.1044 68.0272 
-114.793 -98.0208 89.1163 -115.274 -103.082 89.4417 -115.313 -108.446 89.1817 
-114.252 -110.827 88.6941 -112.286 -108.396 88.5778 -110.358 -103.49 88.7014 
-109.022 -99.8671 88.3278 -108.099 -98.5151 87.2054 -107.321 -98.0513 85.7758 
-109.723 -79.5467 71.2301 -109.55 -80.0138 70.598 -109.358 -80.5929 70.1054 
-109.139 -81.3235 69.59 -108.839 -82.2071 69.0663 -108.382 -83.07 68.6642 
-107.793 -83.8315 68.3548 -107.225 -84.6282 68.0526 -106.801 -85.4889 67.8602 
-107.438 -87.7214 85.3817 -108.397 -89.1934 86.7369 -108.343 -89.6122 86.9546 
-109.375 -90.5176 87.6844 -109.509 -91.4199 88.3808 -109.283 -91.6182 88.3751 
-110.093 -91.0971 88.1759 -110.617 -93.1468 89.347 -110.611 -94.1824 89.7959 
-110.19 -94.0757 89.5649 -110.389 -90.714 88.3607 -111.323 -93.9238 89.7863 
-111.804 -96.8998 90.5829 -111.655 -98.0564 90.6592 -111.063 -97.112 90.3492 
-110.47 -89.9727 88.3333 -111.561 -93.4557 89.8408 -112.518 -98.2662 90.7185 
-112.856 -102.062 90.8753 -112.506 -102.455 90.7858 -111.716 -99.9711 90.6741 
-110.621 -89.4929 88.0518 -111.615 -92.4916 89.6359 -112.751 -97.6557 90.5801 
-113.518 -103.71 90.6196 -113.526 -107.021 90.3934 -112.896 -105.707 90.5302 
-111.957 -101.774 90.7407 -110.843 -89.1631 87.5468 -111.671 -91.649 89.1818 
-112.734 -95.947 90.3861 -113.699 -102.327 90.5659 -114.062 -108.199 90.0609 
-113.672 -109.919 89.8877 -112.845 -107.062 90.3377 -111.898 -102.501 90.7281 
-106.67 -85.1548 82.8762 -106.623 -84.142 81.7405 -107.211 -85.9478 83.9698 
-106.655 -83.0166 80.4357 -106.994 -84.4067 82.6846 -107.771 -86.5087 84.7534 
-106.966 -82.0999 79.0392 -107.045 -83.0171 81.2434 -107.467 -84.6172 83.3612 
-108.291 -86.7629 85.1446 -107.611 -81.5941 77.623 -107.522 -82.2368 79.693 
-107.61 -83.2542 81.8111 -107.997 -84.8836 83.6921 -108.664 -86.7341 85.2863 
-108.242 -81.1537 76.3491 -108.142 -81.7285 78.2404 -108.103 -82.4299 80.2022 
-108.169 -83.4971 82.1312 -108.426 -84.9835 83.8414 -108.934 -86.527 85.3361 
-108.587 -80.4294 75.3218 -108.498 -80.8971 77.146 -108.504 -81.4973 78.8963 
-108.535 -82.2695 80.6467 -108.579 -83.3644 82.391 -108.785 -84.7729 83.9497 
-109.265 -86.2537 85.2778 -108.89 -79.6457 74.4602 -108.698 -79.9049 76.3401 
-108.7 -80.3789 78.0459 -108.828 -81.0488 79.5549 -108.915 -81.9046 81.0944 
-108.983 -83.031 82.6441 -109.217 -84.425 83.9828 -109.69 -85.911 85.0888 
-110.12 -79.2017 74.2319 -110.93 -79.492 74.9204 -109.755 -79.3241 76.2467 
-111.704 -79.5235 75.7652 -110.614 -79.5441 76.8955 -109.674 -79.6945 77.9765 
-112.447 -79.1584 76.636 -111.52 -79.4026 77.5128 -110.583 -79.9294 78.4373 
-109.853 -80.3722 79.2903 -113.319 -79.3697 77.1314 -112.416 -79.1898 77.9851 
-111.477 -79.864 78.8228 -110.712 -80.6921 79.6559 -110.025 -81.1936 80.5344 
-114.072 -80.6476 77.1769 -113.257 -79.8738 78.1608 -112.237 -79.8993 79.1698 
-111.443 -80.763 80.0637 -110.766 -81.5512 80.9435 -110.069 -82.048 81.8765 
-114.281 -81.9448 77.348 -113.774 -81.1562 78.3273 -112.852 -80.5314 79.5432 
-112.021 -80.8395 80.6047 -111.382 -81.7161 81.4659 -110.733 -82.371 82.2857 
[...]
POINT_DATA 1002
FIELD FieldData 2
Color_Map_Phi 1 1002 float
6.28319 3.14159 6.28319 3.14159 4.71239 4.71239 1.5708 1.5708 3.69517 
5.72961 2.58802 0.553574 6.28319 6.28319 6.28319 6.28319 3.14159 3.14159 
3.14159 3.14159 3.14159 6.1053 5.8988 5.67687 5.45995 5.26596 5.10322 
4.97131 4.86569 4.78095 0.177881 0.384387 0.606312 0.823235 1.01722 1.17997 
1.31187 1.4175 1.50223 6.18928 6.10703 6.03531 5.97283 5.91832 5.87061 
5.82869 5.79168 5.75886 0.0939024 0.176153 0.247873 0.310351 0.364864 0.412573 
0.454497 0.491504 0.524326 3.31947 3.52598 3.7479 3.96483 4.15881 4.32156 
4.45346 4.55909 4.64383 2.96371 2.75721 2.53528 2.31836 2.12437 1.96162 
1.82972 1.72409 1.63936 3.2355 3.31775 3.38947 3.45194 3.50646 3.55417 
3.59609 3.6331 3.66592 3.04769 2.96544 2.89372 2.83124 2.77673 2.72902 
2.6871 2.65009 2.61727 6.28319 6.28319 6.28319 6.28319 3.14159 3.14159 
3.14159 3.14159 3.14159 6.1053 5.8988 5.67687 5.45995 5.26596 5.10322 
4.97131 4.86569 4.78095 0.177881 0.384387 0.606312 0.823235 1.01722 1.17997 
1.31187 1.4175 1.50223 6.18928 6.10703 6.03531 5.97283 5.91832 5.87061 
5.82869 5.79168 5.75886 0.0939024 0.176153 0.247873 0.310351 0.364864 0.412573 
0.454497 0.491504 0.524326 3.31947 3.52598 3.7479 3.96483 4.15881 4.32156 
4.45346 4.55909 4.64383 2.96371 2.75721 2.53528 2.31836 2.12437 1.96162 
1.82972 1.72409 1.63936 3.2355 3.31775 3.38947 3.45194 3.50646 3.55417 
3.59609 3.6331 3.66592 3.04769 2.96544 2.89372 2.83124 2.77673 2.72902 
2.6871 2.65009 2.61727 4.71239 4.71239 4.71239 4.71239 4.71239 4.71239 
4.71239 4.71239 4.71239 4.60879 4.49914 4.3857 4.27128 4.15881 4.05096 
3.94976 3.85646 3.77161 4.81599 4.92564 5.03907 5.1535 5.26596 5.37381 
5.47502 5.56831 5.65317 4.60879 4.49914 4.3857 4.27128 4.15881 4.05096 
3.94976 3.85646 3.77161 4.81599 4.92564 5.03907 5.1535 5.26596 5.37381 
5.47502 5.56831 5.65317 1.5708 1.5708 1.5708 1.5708 1.5708 1.5708 
1.5708 1.5708 1.5708 1.6744 1.78405 1.89748 2.01191 2.12437 2.23222 
2.33343 2.42672 2.51157 1.4672 1.35755 1.24411 1.12969 1.01722 0.909371 
0.808166 0.714871 0.63002 1.6744 1.78405 1.89748 2.01191 2.12437 2.23222 
2.33343 2.42672 2.51157 1.4672 1.35755 1.24411 1.12969 1.01722 0.909371 
0.808166 0.714871 0.63002 3.60077 3.49669 3.38395 3.26458 3.14159 3.01861 
2.89924 2.78649 2.68241 5.82401 5.92808 6.04083 6.1602 6.28319 0.122983 
0.242354 0.355101 0.459179 6.05603 5.78856 5.97021 5.51259 5.60297 5.78856 
5.26596 5.26596 5.26596 5.26596 5.06749 5.0121 4.91556 4.71239 4.15881 
4.91556 4.83537 4.71239 4.50922 4.15881 3.63622 4.80045 4.71239 4.58941 
4.41268 4.15881 3.82181 3.45456 4.71239 4.62433 4.50922 4.35729 4.15881 
3.91219 3.63622 3.36875 6.01742 5.94343 5.82633 5.88092 5.76745 5.62798 
5.8278 5.71897 5.58911 5.43724 5.78235 5.67854 5.55757 5.41926 5.26596 
5.74316 5.64441 5.5315 5.40467 5.26596 5.11955 5.70914 5.61528 5.50962 
5.3926 5.26596 5.13292 4.99789 5.67937 5.59016 5.49102 5.38246 5.26596 
5.14407 5.02016 4.89798 5.56831 5.47502 5.47502 5.37381 5.37381 5.37381 
5.26596 5.26596 5.26596 5.26596 5.1535 5.1535 5.1535 5.1535 5.1535 
5.03907 5.03907 5.03907 5.03907 5.03907 5.03907 4.92564 4.92564 4.92564 
4.92564 4.92564 4.92564 4.92564 4.81599 4.81599 4.81599 4.81599 4.81599 
4.81599 4.81599 4.81599 4.60879 4.60879 4.49914 4.60879 4.49914 4.3857 
4.60879 4.49914 4.3857 4.27128 4.60879 4.49914 4.3857 4.27128 4.15881 
4.60879 4.49914 4.3857 4.27128 4.15881 4.05096 4.60879 4.49914 4.3857 
4.27128 4.15881 4.05096 3.94976 4.60879 4.49914 4.3857 4.27128 4.15881 
4.05096 3.94976 3.85646 4.5268 4.40462 4.42689 4.28071 4.29185 4.30523 
4.15881 4.15881 4.15881 4.15881 4.04232 4.03217 4.02011 4.00552 3.98753 
3.93376 3.91515 3.89328 3.86721 3.83566 3.7968 3.83461 3.8095 3.78037 
3.74624 3.70581 3.65733 3.59845 3.7454 3.71564 3.68161 3.64243 3.59698 
3.54386 3.48135 3.40735 3.56428 3.45246 3.52338 3.33203 3.40312 3.47739 
3.20576 3.27463 3.34802 3.42551 3.07742 3.14159 3.21128 3.28647 3.36688 
2.95116 3.00855 3.0719 3.14159 3.21784 3.3006 2.83072 2.88006 2.93517 
2.99672 3.06535 3.14159 3.22575 2.7189 2.7598 2.8058 2.85768 2.9163 
2.98259 3.05743 3.14159 3.56428 3.52338 3.45246 3.47739 3.40312 3.33203 
3.42551 3.34802 3.27463 3.20576 3.36688 3.28647 3.21128 3.14159 3.07742 
3.3006 3.21784 3.14159 3.0719 3.00855 2.95116 3.22575 3.14159 3.06535 
2.99672 2.93517 2.88006 2.83072 3.14159 3.05743 2.98259 2.9163 2.85768 
2.8058 2.7598 2.7189 4.5268 4.42689 4.40462 4.30523 4.29185 4.28071 
4.15881 4.15881 4.15881 4.15881 3.98753 4.00552 4.02011 4.03217 4.04232 
3.7968 3.83566 3.86721 3.89328 3.91515 3.93376 3.59845 3.65733 3.70581 
3.74624 3.78037 3.8095 3.83461 3.40735 3.48135 3.54386 3.59698 3.64243 
3.68161 3.71564 3.7454 4.71239 4.80045 4.62433 4.91556 4.71239 4.50922 
5.06749 4.83537 4.58941 4.35729 5.26596 5.0121 4.71239 4.41268 4.15881 
5.51259 5.26596 4.91556 4.50922 4.15881 3.91219 5.78856 5.60297 5.26596 
4.71239 4.15881 3.82181 3.63622 6.05603 5.97021 5.78856 5.26596 4.15881 
3.63622 3.45456 3.36875 0.227158 0.494626 0.312971 0.770593 0.680215 0.494626 
1.01722 1.01722 1.01722 1.01722 1.2157 1.27109 1.36763 1.5708 2.12437 
1.36763 1.44781 1.5708 1.77397 2.12437 2.64697 1.48273 1.5708 1.69378 
1.8705 2.12437 2.46138 2.82862 1.5708 1.65886 1.77397 1.9259 2.12437 
2.371 2.64697 2.91443 1.75639 1.87857 1.8563 2.00248 1.99133 1.97796 
2.12437 2.12437 2.12437 2.12437 2.24087 2.25101 2.26308 2.27767 2.29565 
2.34943 2.36803 2.38991 2.41597 2.44752 2.48639 2.44857 2.47368 2.50281 
2.53694 2.57738 2.62586 2.68474 2.53778 2.56754 2.60157 2.64076 2.68621 
2.73933 2.80184 2.87583 1.6744 1.6744 1.78405 1.6744 1.78405 1.89748 
1.6744 1.78405 1.89748 2.01191 1.6744 1.78405 1.89748 2.01191 2.12437 
1.6744 1.78405 1.89748 2.01191 2.12437 2.23222 1.6744 1.78405 1.89748 
2.01191 2.12437 2.23222 2.33343 1.6744 1.78405 1.89748 2.01191 2.12437 
2.23222 2.33343 2.42672 1.4672 1.35755 1.4672 1.24411 1.35755 1.4672 
1.12969 1.24411 1.35755 1.4672 1.01722 1.12969 1.24411 1.35755 1.4672 
0.909371 1.01722 1.12969 1.24411 1.35755 1.4672 0.808166 0.909371 1.01722 
1.12969 1.24411 1.35755 1.4672 0.714871 0.808166 0.909371 1.01722 1.12969 
1.24411 1.35755 1.4672 0.603812 0.57405 0.693022 0.540021 0.667908 0.792164 
0.500837 0.638778 0.773562 0.900726 0.455383 0.604649 0.751687 0.890581 1.01722 
0.402264 0.564217 0.725619 0.878514 1.01722 1.13912 0.339753 0.515737 0.694072 
0.863926 1.01722 1.15026 1.26302 0.265762 0.456853 0.655207 0.845941 1.01722 
1.16363 1.28529 1.38521 0.227158 0.312971 0.494626 0.494626 0.680215 0.770593 
1.01722 1.01722 1.01722 1.01722 2.12437 1.5708 1.36763 1.27109 1.2157 
2.64697 2.12437 1.77397 1.5708 1.44781 1.36763 2.82862 2.46138 2.12437 
1.8705 1.69378 1.5708 1.48273 2.91443 2.64697 2.371 2.12437 1.9259 
1.77397 1.65886 1.5708 1.75639 1.8563 1.87857 1.97796 1.99133 2.00248 
2.12437 2.12437 2.12437 2.12437 2.29565 2.27767 2.26308 2.25101 2.24087 
2.48639 2.44752 2.41597 2.38991 2.36803 2.34943 2.68474 2.62586 2.57738 
2.53694 2.50281 2.47368 2.44857 2.87583 2.80184 2.73933 2.68621 2.64076 
2.60157 2.56754 2.53778 5.86049 5.90139 5.97231 5.94739 6.02165 6.09275 
5.99927 6.07676 6.15015 6.21902 6.0579 6.13831 6.2135 0 0.0641696 
6.12418 6.20694 6.28319 0.069689 0.13304 0.190437 6.19903 0 0.0762451 
0.144876 0.206423 0.261531 0.310872 0 0.0841597 0.159004 0.225289 0.283913 
0.335793 0.381792 0.422692 5.86049 5.97231 5.90139 6.09275 6.02165 5.94739 
6.21902 6.15015 6.07676 5.99927 0.0641696 0 6.2135 6.13831 6.0579 
0.190437 0.13304 0.069689 6.28319 6.20694 6.12418 0.310872 0.261531 0.206423 
0.144876 0.0762451 6.28319 6.19903 0.422692 0.381792 0.335793 0.283913 0.225289 
0.159004 0.0841597 0 5.67937 5.70914 5.59016 5.74316 5.61528 5.49102 
5.78235 5.64441 5.50962 5.38246 5.8278 5.67854 5.5315 5.3926 5.26596 
5.88092 5.71897 5.55757 5.40467 5.26596 5.14407 5.94343 5.76745 5.58911 
5.41926 5.26596 5.13292 5.02016 6.01742 5.82633 5.62798 5.43724 5.26596 
5.11955 4.99789 4.89798 1.38521 1.28529 1.26302 1.16363 1.15026 1.13912 
1.01722 1.01722 1.01722 1.01722 0.845941 0.863926 0.878514 0.890581 0.900726 
0.655207 0.694072 0.725619 0.751687 0.773562 0.792164 0.456853 0.515737 0.564217 
0.604649 0.638778 0.667908 0.693022 0.265762 0.339753 0.402264 0.455383 0.500837 
0.540021 0.57405 0.603812 
Color_Map_Theta 1 1002 float
2.58802 2.58802 0.553574 0.553574 2.12437 1.01722 2.12437 1.01722 1.5708 
1.5708 1.5708 1.5708 2.68241 2.78649 2.89924 3.01861 3.14159 3.01861 
2.89924 2.78649 2.68241 2.61035 2.61791 2.60515 2.56958 2.51327 2.44184 
2.36202 2.27983 2.1997 2.61035 2.61791 2.60515 2.56958 2.51327 2.44184 
2.36202 2.27983 2.1997 2.50947 2.41899 2.31794 2.20864 2.0944 1.97902 
1.86631 1.75944 1.66056 2.50947 2.41899 2.31794 2.20864 2.0944 1.97902 
1.86631 1.75944 1.66056 2.61035 2.61791 2.60515 2.56958 2.51327 2.44184 
2.36202 2.27983 2.1997 2.61035 2.61791 2.60515 2.56958 2.51327 2.44184 
2.36202 2.27983 2.1997 2.50947 2.41899 2.31794 2.20864 2.0944 1.97902 
1.86631 1.75944 1.66056 2.50947 2.41899 2.31794 2.20864 2.0944 1.97902 
1.86631 1.75944 1.66056 0.459179 0.355101 0.242354 0.122983 0 0.122983 
0.242354 0.355101 0.459179 0.531246 0.523681 0.536438 0.57201 0.628319 0.699757 
0.779574 0.86176 0.941896 0.531246 0.523681 0.536438 0.57201 0.628319 0.699757 
0.779574 0.86176 0.941896 0.632123 0.7226 0.823657 0.932948 1.0472 1.16257 
1.27528 1.38216 1.48103 0.632123 0.7226 0.823657 0.932948 1.0472 1.16257 
1.27528 1.38216 1.48103 0.531246 0.523681 0.536438 0.57201 0.628319 0.699757 
0.779574 0.86176 0.941896 0.531246 0.523681 0.536438 0.57201 0.628319 0.699757 
0.779574 0.86176 0.941896 0.632123 0.7226 0.823657 0.932948 1.0472 1.16257 
1.27528 1.38216 1.48103 0.632123 0.7226 0.823657 0.932948 1.0472 1.16257 
1.27528 1.38216 1.48103 2.02998 1.9259 1.81315 1.69378 1.5708 1.44781 
1.32844 1.2157 1.11162 2.0928 2.05283 2.00422 1.94767 1.88496 1.81867 
1.75177 1.68695 1.62623 2.0928 2.05283 2.00422 1.94767 1.88496 1.81867 
1.75177 1.68695 1.62623 1.0488 1.08876 1.13737 1.19392 1.25664 1.32292 
1.38982 1.45464 1.51537 1.0488 1.08876 1.13737 1.19392 1.25664 1.32292 
1.38982 1.45464 1.51537 2.02998 1.9259 1.81315 1.69378 1.5708 1.44781 
1.32844 1.2157 1.11162 2.0928 2.05283 2.00422 1.94767 1.88496 1.81867 
1.75177 1.68695 1.62623 2.0928 2.05283 2.00422 1.94767 1.88496 1.81867 
1.75177 1.68695 1.62623 1.0488 1.08876 1.13737 1.19392 1.25664 1.32292 
1.38982 1.45464 1.51537 1.0488 1.08876 1.13737 1.19392 1.25664 1.32292 
1.38982 1.45464 1.51537 1.5708 1.5708 1.5708 1.5708 1.5708 1.5708 
1.5708 1.5708 1.5708 1.5708 1.5708 1.5708 1.5708 1.5708 1.5708 
1.5708 1.5708 1.5708 2.70908 2.71362 2.81592 2.68886 2.81002 2.92597 
2.6349 2.76254 2.89233 3.01997 2.55881 2.68262 2.80854 2.92834 3.01997 
2.47007 2.58462 2.70048 2.80854 2.89233 2.92597 2.37702 2.48017 2.58462 
2.68262 2.76254 2.81002 2.81592 2.28567 2.37702 2.47007 2.55881 2.6349 
2.68886 2.71362 2.70908 2.52097 2.4195 2.51718 2.30791 2.40503 2.49426 
2.18928 2.28408 2.3734 2.45144 2.06758 2.15805 2.24572 2.32523 2.39165 
1.94707 2.03138 2.11543 2.19453 2.26401 2.32035 1.83164 1.90847 1.98711 
2.06376 2.13422 2.1949 2.24359 1.72413 1.79288 1.86489 1.93728 2.00658 
2.06938 2.12312 2.16654 1.5708 1.50988 1.63171 1.44492 1.5708 1.69667 
1.37826 1.5059 1.63569 1.76333 1.31281 1.43962 1.5708 1.70197 1.82878 
1.25155 1.37501 1.50478 1.63681 1.76659 1.89004 1.19686 1.31493 1.44074 
1.5708 1.70086 1.82666 1.94473 1.15011 1.26149 1.38136 1.50697 1.63462 
1.76024 1.88011 1.99148 1.99148 1.88011 1.94473 1.76024 1.82666 1.89004 
1.63462 1.70086 1.76659 1.82878 1.50697 1.5708 1.63681 1.70197 1.76333 
1.38136 1.44074 1.50478 1.5708 1.63569 1.69667 1.26149 1.31493 1.37501 
1.43962 1.5059 1.5708 1.63171 1.15011 1.19686 1.25155 1.31281 1.37826 
1.44492 1.50988 1.5708 2.16654 2.12312 2.24359 2.06938 2.1949 2.32035 
2.00658 2.13422 2.26401 2.39165 1.93728 2.06376 2.19453 2.32523 2.45144 
1.86489 1.98711 2.11543 2.24572 2.3734 2.49426 1.79288 1.90847 2.03138 
2.15805 2.28408 2.40503 2.51718 1.72413 1.83164 1.94707 2.06758 2.18928 
2.30791 2.4195 2.52097 1.66533 1.66946 1.76911 1.67254 1.777 1.88041 
1.67418 1.78222 1.89102 1.99634 1.67418 1.78405 1.89674 2.00785 2.11299 
1.67254 1.78222 1.89674 2.01191 2.12307 2.22608 1.66946 1.777 1.89102 
2.00785 2.12307 2.23222 2.33166 1.66533 1.76911 1.88041 1.99634 2.11299 
2.22608 2.33166 2.42672 1.47626 1.37249 1.47213 1.26118 1.36459 1.46906 
1.14526 1.25058 1.35938 1.46741 1.0286 1.13374 1.24485 1.35755 1.46741 
0.915514 1.01852 1.12969 1.24485 1.35938 1.46906 0.809937 0.909371 1.01852 
1.13374 1.25058 1.36459 1.47213 0.714871 0.809937 0.915514 1.0286 1.14526 
1.26118 1.37249 1.47626 0.975055 0.898002 1.01847 0.821245 0.946693 1.07221 
0.749941 0.877585 1.00737 1.13501 0.690152 0.816367 0.94706 1.07784 1.20431 
0.647337 0.768195 0.895868 1.02616 1.15448 1.2767 0.624416 0.736561 0.857515 
0.983547 1.11021 1.23313 1.34871 0.620619 0.722093 0.833684 0.952313 1.07402 
1.19452 1.30996 1.41746 0.855925 0.764569 0.764569 0.671524 0.661425 0.671524 
0.582786 0.556971 0.556971 0.582786 0.506696 0.458968 0.441109 0.458968 0.506696 
0.45273 0.379052 0.333054 0.333054 0.379052 0.45273 0.427969 0.331576 0.249267 
0.21325 0.249267 0.331576 0.427969 0.432512 0.325669 0.215619 0.121622 0.121622 
0.215619 0.325669 0.432512 0.432512 0.427969 0.325669 0.45273 0.331576 0.215619 
0.506696 0.379052 0.249267 0.121622 0.582786 0.458968 0.333054 0.21325 0.121622 
0.671524 0.556971 0.441109 0.333054 0.249267 0.215619 0.764569 0.661425 0.556971 
0.458968 0.379052 0.331576 0.325669 0.855925 0.764569 0.671524 0.582786 0.506696 
0.45273 0.427969 0.432512 0.975055 1.01847 0.898002 1.07221 0.946693 0.821245 
1.13501 1.00737 0.877585 0.749941 1.20431 1.07784 0.94706 0.816367 0.690152 
1.2767 1.15448 1.02616 0.895868 0.768195 0.647337 1.34871 1.23313 1.11021 
0.983547 0.857515 0.736561 0.624416 1.41746 1.30996 1.19452 1.07402 0.952313 
0.833684 0.722093 0.620619 1.15011 1.26149 1.19686 1.38136 1.31493 1.25155 
1.50697 1.44074 1.37501 1.31281 1.63462 1.5708 1.50478 1.43962 1.37826 
1.76024 1.70086 1.63681 1.5708 1.5059 1.44492 1.88011 1.82666 1.76659 
1.70197 1.63569 1.5708 1.50988 1.99148 1.94473 1.89004 1.82878 1.76333 
1.69667 1.63171 1.5708 1.15011 1.19686 1.26149 1.25155 1.31493 1.38136 
1.31281 1.37501 1.44074 1.50697 1.37826 1.43962 1.50478 1.5708 1.63462 
1.44492 1.5059 1.5708 1.63681 1.70086 1.76024 1.50988 1.5708 1.63569 
1.70197 1.76659 1.82666 1.88011 1.5708 1.63171 1.69667 1.76333 1.82878 
1.89004 1.94473 1.99148 1.72413 1.83164 1.79288 1.94707 1.90847 1.86489 
2.06758 2.03138 1.98711 1.93728 2.18928 2.15805 2.11543 2.06376 2.00658 
2.30791 2.28408 2.24572 2.19453 2.13422 2.06938 2.4195 2.40503 2.3734 
2.32523 2.26401 2.1949 2.12312 2.52097 2.51718 2.49426 2.45144 2.39165 
2.32035 2.24359 2.16654 2.70908 2.81592 2.71362 2.92597 2.81002 2.68886 
3.01997 2.89233 2.76254 2.6349 3.01997 2.92834 2.80854 2.68262 2.55881 
2.92597 2.89233 2.80854 2.70048 2.58462 2.47007 2.81592 2.81002 2.76254 
2.68262 2.58462 2.48017 2.37702 2.70908 2.71362 2.68886 2.6349 2.55881 
2.47007 2.37702 2.28567 2.16654 2.24359 2.12312 2.32035 2.1949 2.06938 
2.39165 2.26401 2.13422 2.00658 2.45144 2.32523 2.19453 2.06376 1.93728 
2.49426 2.3734 2.24572 2.11543 1.98711 1.86489 2.51718 2.40503 2.28408 
2.15805 2.03138 1.90847 1.79288 2.52097 2.4195 2.30791 2.18928 2.06758 
1.94707 1.83164 1.72413 1.66533 1.76911 1.66946 1.88041 1.777 1.67254 
1.99634 1.89102 1.78222 1.67418 2.11299 2.00785 1.89674 1.78405 1.67418 
2.22608 2.12307 2.01191 1.89674 1.78222 1.67254 2.33166 2.23222 2.12307 
2.00785 1.89102 1.777 1.66946 2.42672 2.33166 2.22608 2.11299 1.99634 
1.88041 1.76911 1.66533 1.47626 1.47213 1.37249 1.46906 1.36459 1.26118 
1.46741 1.35938 1.25058 1.14526 1.46741 1.35755 1.24485 1.13374 1.0286 
1.46906 1.35938 1.24485 1.12969 1.01852 0.915514 1.47213 1.36459 1.25058 
1.13374 1.01852 0.909371 0.809937 1.47626 1.37249 1.26118 1.14526 1.0286 
0.915514 0.809937 0.714871 1.41746 1.30996 1.34871 1.19452 1.23313 1.2767 
1.07402 1.11021 1.15448 1.20431 0.952313 0.983547 1.02616 1.07784 1.13501 
0.833684 0.857515 0.895868 0.94706 1.00737 1.07221 0.722093 0.736561 0.768195 
0.816367 0.877585 0.946693 1.01847 0.620619 0.624416 0.647337 0.690152 0.749941 
0.821245 0.898002 0.975055 0.975055 0.898002 1.01847 0.821245 0.946693 1.07221 
0.749941 0.877585 1.00737 1.13501 0.690152 0.816367 0.94706 1.07784 1.20431 
0.647337 0.768195 0.895868 1.02616 1.15448 1.2767 0.624416 0.736561 0.857515 
0.983547 1.11021 1.23313 1.34871 0.620619 0.722093 0.833684 0.952313 1.07402 
1.19452 1.30996 1.41746 
